s 0.028837267 _1_ RTR  --- 0 message 32 [0 0 0 0] ------- [1:255 -1:255 32 0] 
r 0.030017615 _0_ RTR  --- 0 message 32 [0 ffffffff 1 800] ------- [1:255 -1:255 32 0] 
r 0.030017904 _3_ RTR  --- 0 message 32 [0 ffffffff 1 800] ------- [1:255 -1:255 32 0] 
r 0.030017986 _7_ RTR  --- 0 message 32 [0 ffffffff 1 800] ------- [1:255 -1:255 32 0] 
r 0.030018012 _2_ RTR  --- 0 message 32 [0 ffffffff 1 800] ------- [1:255 -1:255 32 0] 
s 0.180481910 _2_ RTR  --- 1 message 32 [0 0 0 0] ------- [2:255 -1:255 32 0] 
r 0.181642655 _1_ RTR  --- 1 message 32 [0 ffffffff 2 800] ------- [2:255 -1:255 32 0] 
s 0.331778223 _11_ RTR  --- 2 message 32 [0 0 0 0] ------- [11:255 -1:255 32 0] 
r 0.332618838 _9_ RTR  --- 2 message 32 [0 ffffffff b 800] ------- [11:255 -1:255 32 0] 
s 0.473864663 _7_ RTR  --- 3 message 32 [0 0 0 0] ------- [7:255 -1:255 32 0] 
r 0.475265017 _3_ RTR  --- 3 message 32 [0 ffffffff 7 800] ------- [7:255 -1:255 32 0] 
r 0.475265383 _1_ RTR  --- 3 message 32 [0 ffffffff 7 800] ------- [7:255 -1:255 32 0] 
r 0.475265436 _8_ RTR  --- 3 message 32 [0 ffffffff 7 800] ------- [7:255 -1:255 32 0] 
r 0.475265486 _4_ RTR  --- 3 message 32 [0 ffffffff 7 800] ------- [7:255 -1:255 32 0] 
r 0.475265486 _9_ RTR  --- 3 message 32 [0 ffffffff 7 800] ------- [7:255 -1:255 32 0] 
s 0.620329710 _9_ RTR  --- 4 message 32 [0 0 0 0] ------- [9:255 -1:255 32 0] 
r 0.621190325 _11_ RTR  --- 4 message 32 [0 ffffffff 9 800] ------- [9:255 -1:255 32 0] 
r 0.621190438 _10_ RTR  --- 4 message 32 [0 ffffffff 9 800] ------- [9:255 -1:255 32 0] 
r 0.621190534 _7_ RTR  --- 4 message 32 [0 ffffffff 9 800] ------- [9:255 -1:255 32 0] 
s 0.633545862 _5_ RTR  --- 5 message 32 [0 0 0 0] ------- [5:255 -1:255 32 0] 
r 0.634446262 _8_ RTR  --- 5 message 32 [0 ffffffff 5 800] ------- [5:255 -1:255 32 0] 
r 0.634446309 _4_ RTR  --- 5 message 32 [0 ffffffff 5 800] ------- [5:255 -1:255 32 0] 
r 0.634446389 _6_ RTR  --- 5 message 32 [0 ffffffff 5 800] ------- [5:255 -1:255 32 0] 
s 0.886388839 _3_ RTR  --- 6 message 32 [0 0 0 0] ------- [3:255 -1:255 32 0] 
r 0.887729194 _7_ RTR  --- 6 message 32 [0 ffffffff 3 800] ------- [3:255 -1:255 32 0] 
r 0.887729344 _4_ RTR  --- 6 message 32 [0 ffffffff 3 800] ------- [3:255 -1:255 32 0] 
r 0.887729357 _8_ RTR  --- 6 message 32 [0 ffffffff 3 800] ------- [3:255 -1:255 32 0] 
r 0.887729476 _1_ RTR  --- 6 message 32 [0 ffffffff 3 800] ------- [3:255 -1:255 32 0] 
s 1.120674910 _0_ RTR  --- 7 message 32 [0 0 0 0] ------- [0:255 -1:255 32 0] 
r 1.121555258 _1_ RTR  --- 7 message 32 [0 ffffffff 0 800] ------- [0:255 -1:255 32 0] 
s 1.283680560 _8_ RTR  --- 8 message 32 [0 0 0 0] ------- [8:255 -1:255 32 0] 
r 1.284780760 _4_ RTR  --- 8 message 32 [0 ffffffff 8 800] ------- [8:255 -1:255 32 0] 
r 1.284780960 _5_ RTR  --- 8 message 32 [0 ffffffff 8 800] ------- [8:255 -1:255 32 0] 
r 1.284781078 _3_ RTR  --- 8 message 32 [0 ffffffff 8 800] ------- [8:255 -1:255 32 0] 
r 1.284781334 _7_ RTR  --- 8 message 32 [0 ffffffff 8 800] ------- [8:255 -1:255 32 0] 
s 1.600880844 _4_ RTR  --- 9 message 32 [0 0 0 0] ------- [4:255 -1:255 32 0] 
r 1.601701044 _8_ RTR  --- 9 message 32 [0 ffffffff 4 800] ------- [4:255 -1:255 32 0] 
r 1.601701292 _5_ RTR  --- 9 message 32 [0 ffffffff 4 800] ------- [4:255 -1:255 32 0] 
r 1.601701349 _3_ RTR  --- 9 message 32 [0 ffffffff 4 800] ------- [4:255 -1:255 32 0] 
r 1.601701668 _7_ RTR  --- 9 message 32 [0 ffffffff 4 800] ------- [4:255 -1:255 32 0] 
s 1.635570344 _6_ RTR  --- 10 message 32 [0 0 0 0] ------- [6:255 -1:255 32 0] 
r 1.636610871 _5_ RTR  --- 10 message 32 [0 ffffffff 6 800] ------- [6:255 -1:255 32 0] 
s 1.675920244 _10_ RTR  --- 11 message 32 [0 0 0 0] ------- [10:255 -1:255 32 0] 
r 1.676980972 _9_ RTR  --- 11 message 32 [0 ffffffff a 800] ------- [10:255 -1:255 32 0] 
M 5.00000 0 (100.00, 320.00, 0.00), (80.00, 310.00), 24.00
M 10.00000 1 (200.00, 350.00, 0.00), (180.00, 360.00), 23.00
s 10.000000000 _4_ AGT  --- 12 tcp 40 [0 0 0 0] ------- [4:0 11:0 32 0] [0 0] 0 0
r 10.000000000 _4_ RTR  --- 12 tcp 40 [0 0 0 0] ------- [4:0 11:0 32 0] [0 0] 0 0
s 12.031805291 _2_ RTR  --- 16 message 32 [0 0 0 0] ------- [2:255 -1:255 32 0] 
s 12.032085244 _3_ RTR  --- 14 message 32 [0 0 0 0] ------- [3:255 -1:255 32 0] 
r 12.032746097 _1_ RTR  --- 16 message 32 [0 ffffffff 2 800] ------- [2:255 -1:255 32 0] 
r 12.034180753 _7_ RTR  --- 14 message 32 [0 ffffffff 3 800] ------- [3:255 -1:255 32 0] 
r 12.034180903 _4_ RTR  --- 14 message 32 [0 ffffffff 3 800] ------- [3:255 -1:255 32 0] 
r 12.034180916 _8_ RTR  --- 14 message 32 [0 ffffffff 3 800] ------- [3:255 -1:255 32 0] 
r 12.034181065 _1_ RTR  --- 14 message 32 [0 ffffffff 3 800] ------- [3:255 -1:255 32 0] 
s 12.036967359 _7_ RTR  --- 15 message 32 [0 0 0 0] ------- [7:255 -1:255 32 0] 
s 12.037744572 _0_ RTR  --- 13 message 32 [0 0 0 0] ------- [0:255 -1:255 32 0] 
r 12.037907713 _3_ RTR  --- 15 message 32 [0 ffffffff 7 800] ------- [7:255 -1:255 32 0] 
r 12.037908132 _8_ RTR  --- 15 message 32 [0 ffffffff 7 800] ------- [7:255 -1:255 32 0] 
r 12.037908137 _1_ RTR  --- 15 message 32 [0 ffffffff 7 800] ------- [7:255 -1:255 32 0] 
r 12.037908182 _4_ RTR  --- 15 message 32 [0 ffffffff 7 800] ------- [7:255 -1:255 32 0] 
r 12.037908182 _9_ RTR  --- 15 message 32 [0 ffffffff 7 800] ------- [7:255 -1:255 32 0] 
r 12.039242872 _1_ RTR  --- 13 message 32 [0 ffffffff 0 800] ------- [0:255 -1:255 32 0] 
s 12.082647046 _2_ RTR  --- 17 message 44 [0 0 0 0] ------- [2:255 -1:255 32 0] 
r 12.083623852 _1_ RTR  --- 17 message 44 [0 ffffffff 2 800] ------- [2:255 -1:255 32 0] 
s 12.341365301 _9_ RTR  --- 19 message 32 [0 0 0 0] ------- [9:255 -1:255 32 0] 
r 12.342305916 _11_ RTR  --- 19 message 32 [0 ffffffff 9 800] ------- [9:255 -1:255 32 0] 
r 12.342306029 _10_ RTR  --- 19 message 32 [0 ffffffff 9 800] ------- [9:255 -1:255 32 0] 
r 12.342306124 _7_ RTR  --- 19 message 32 [0 ffffffff 9 800] ------- [9:255 -1:255 32 0] 
s 12.478826022 _8_ RTR  --- 21 message 32 [0 0 0 0] ------- [8:255 -1:255 32 0] 
r 12.480086222 _4_ RTR  --- 21 message 32 [0 ffffffff 8 800] ------- [8:255 -1:255 32 0] 
r 12.480086422 _5_ RTR  --- 21 message 32 [0 ffffffff 8 800] ------- [8:255 -1:255 32 0] 
r 12.480086540 _3_ RTR  --- 21 message 32 [0 ffffffff 8 800] ------- [8:255 -1:255 32 0] 
r 12.480086795 _7_ RTR  --- 21 message 32 [0 ffffffff 8 800] ------- [8:255 -1:255 32 0] 
s 12.480849572 _4_ RTR  --- 22 message 32 [0 0 0 0] ------- [4:255 -1:255 32 0] 
r 12.481969772 _8_ RTR  --- 22 message 32 [0 ffffffff 4 800] ------- [4:255 -1:255 32 0] 
r 12.481970019 _5_ RTR  --- 22 message 32 [0 ffffffff 4 800] ------- [4:255 -1:255 32 0] 
r 12.481970077 _3_ RTR  --- 22 message 32 [0 ffffffff 4 800] ------- [4:255 -1:255 32 0] 
r 12.481970395 _7_ RTR  --- 22 message 32 [0 ffffffff 4 800] ------- [4:255 -1:255 32 0] 
s 12.483285501 _1_ RTR  --- 20 message 32 [0 0 0 0] ------- [1:255 -1:255 32 0] 
r 12.484405874 _0_ RTR  --- 20 message 32 [0 ffffffff 1 800] ------- [1:255 -1:255 32 0] 
r 12.484406168 _3_ RTR  --- 20 message 32 [0 ffffffff 1 800] ------- [1:255 -1:255 32 0] 
r 12.484406279 _7_ RTR  --- 20 message 32 [0 ffffffff 1 800] ------- [1:255 -1:255 32 0] 
r 12.484406307 _2_ RTR  --- 20 message 32 [0 ffffffff 1 800] ------- [1:255 -1:255 32 0] 
s 12.549856660 _11_ RTR  --- 23 message 32 [0 0 0 0] ------- [11:255 -1:255 32 0] 
r 12.550897274 _9_ RTR  --- 23 message 32 [0 ffffffff b 800] ------- [11:255 -1:255 32 0] 
s 12.628147336 _10_ RTR  --- 24 message 32 [0 0 0 0] ------- [10:255 -1:255 32 0] 
r 12.629408064 _9_ RTR  --- 24 message 32 [0 ffffffff a 800] ------- [10:255 -1:255 32 0] 
s 12.638098863 _6_ RTR  --- 25 message 32 [0 0 0 0] ------- [6:255 -1:255 32 0] 
r 12.639079390 _5_ RTR  --- 25 message 32 [0 ffffffff 6 800] ------- [6:255 -1:255 32 0] 
s 12.775971569 _9_ RTR  --- 26 message 44 [0 0 0 0] ------- [9:255 -1:255 32 0] 
r 12.777248183 _11_ RTR  --- 26 message 44 [0 ffffffff 9 800] ------- [9:255 -1:255 32 0] 
r 12.777248297 _10_ RTR  --- 26 message 44 [0 ffffffff 9 800] ------- [9:255 -1:255 32 0] 
r 12.777248392 _7_ RTR  --- 26 message 44 [0 ffffffff 9 800] ------- [9:255 -1:255 32 0] 
s 12.783591056 _0_ RTR  --- 27 message 44 [0 0 0 0] ------- [0:255 -1:255 32 0] 
r 12.784827429 _1_ RTR  --- 27 message 44 [0 ffffffff 0 800] ------- [0:255 -1:255 32 0] 
s 12.842862705 _3_ RTR  --- 28 message 56 [0 0 0 0] ------- [3:255 -1:255 32 0] 
r 12.843975059 _7_ RTR  --- 28 message 56 [0 ffffffff 3 800] ------- [3:255 -1:255 32 0] 
r 12.843975209 _4_ RTR  --- 28 message 56 [0 ffffffff 3 800] ------- [3:255 -1:255 32 0] 
r 12.843975222 _8_ RTR  --- 28 message 56 [0 ffffffff 3 800] ------- [3:255 -1:255 32 0] 
r 12.843975371 _1_ RTR  --- 28 message 56 [0 ffffffff 3 800] ------- [3:255 -1:255 32 0] 
s 13.000000000 _4_ AGT  --- 29 tcp 40 [0 0 0 0] ------- [4:0 11:0 32 0] [0 0] 0 0
r 13.000000000 _4_ RTR  --- 29 tcp 40 [0 0 0 0] ------- [4:0 11:0 32 0] [0 0] 0 0
s 13.030177958 _7_ RTR  --- 30 message 32 [0 0 0 0] ------- [7:255 -1:255 32 0] 
r 13.031518313 _3_ RTR  --- 30 message 32 [0 ffffffff 7 800] ------- [7:255 -1:255 32 0] 
r 13.031518731 _8_ RTR  --- 30 message 32 [0 ffffffff 7 800] ------- [7:255 -1:255 32 0] 
r 13.031518736 _1_ RTR  --- 30 message 32 [0 ffffffff 7 800] ------- [7:255 -1:255 32 0] 
r 13.031518781 _4_ RTR  --- 30 message 32 [0 ffffffff 7 800] ------- [7:255 -1:255 32 0] 
r 13.031518781 _9_ RTR  --- 30 message 32 [0 ffffffff 7 800] ------- [7:255 -1:255 32 0] 
s 13.288093081 _5_ RTR  --- 31 message 32 [0 0 0 0] ------- [5:255 -1:255 32 0] 
r 13.288933481 _8_ RTR  --- 31 message 32 [0 ffffffff 5 800] ------- [5:255 -1:255 32 0] 
r 13.288933528 _4_ RTR  --- 31 message 32 [0 ffffffff 5 800] ------- [5:255 -1:255 32 0] 
r 13.288933608 _6_ RTR  --- 31 message 32 [0 ffffffff 5 800] ------- [5:255 -1:255 32 0] 
s 13.477406903 _1_ RTR  --- 32 message 32 [0 0 0 0] ------- [1:255 -1:255 32 0] 
r 13.478247276 _0_ RTR  --- 32 message 32 [0 ffffffff 1 800] ------- [1:255 -1:255 32 0] 
r 13.478247570 _3_ RTR  --- 32 message 32 [0 ffffffff 1 800] ------- [1:255 -1:255 32 0] 
r 13.478247681 _7_ RTR  --- 32 message 32 [0 ffffffff 1 800] ------- [1:255 -1:255 32 0] 
r 13.478247709 _2_ RTR  --- 32 message 32 [0 ffffffff 1 800] ------- [1:255 -1:255 32 0] 
s 13.479494810 _4_ RTR  --- 34 message 56 [0 0 0 0] ------- [4:255 -1:255 32 0] 
s 13.479569485 _8_ RTR  --- 33 message 44 [0 0 0 0] ------- [8:255 -1:255 32 0] 
r 13.480947010 _8_ RTR  --- 34 message 56 [0 ffffffff 4 800] ------- [4:255 -1:255 32 0] 
r 13.480947257 _5_ RTR  --- 34 message 56 [0 ffffffff 4 800] ------- [4:255 -1:255 32 0] 
r 13.480947315 _3_ RTR  --- 34 message 56 [0 ffffffff 4 800] ------- [4:255 -1:255 32 0] 
r 13.480947634 _7_ RTR  --- 34 message 56 [0 ffffffff 4 800] ------- [4:255 -1:255 32 0] 
r 13.481833210 _4_ RTR  --- 33 message 44 [0 ffffffff 8 800] ------- [8:255 -1:255 32 0] 
r 13.481833410 _5_ RTR  --- 33 message 44 [0 ffffffff 8 800] ------- [8:255 -1:255 32 0] 
r 13.481833528 _3_ RTR  --- 33 message 44 [0 ffffffff 8 800] ------- [8:255 -1:255 32 0] 
r 13.481833783 _7_ RTR  --- 33 message 44 [0 ffffffff 8 800] ------- [8:255 -1:255 32 0] 
s 13.622535662 _10_ RTR  --- 36 message 32 [0 0 0 0] ------- [10:255 -1:255 32 0] 
r 13.623536390 _9_ RTR  --- 36 message 32 [0 ffffffff a 800] ------- [10:255 -1:255 32 0] 
s 13.687376491 _1_ RTR  --- 37 message 44 [0 0 0 0] ------- [1:255 -1:255 32 0] 
r 13.688392864 _0_ RTR  --- 37 message 44 [0 ffffffff 1 800] ------- [1:255 -1:255 32 0] 
r 13.688393158 _3_ RTR  --- 37 message 44 [0 ffffffff 1 800] ------- [1:255 -1:255 32 0] 
r 13.688393269 _7_ RTR  --- 37 message 44 [0 ffffffff 1 800] ------- [1:255 -1:255 32 0] 
r 13.688393297 _2_ RTR  --- 37 message 44 [0 ffffffff 1 800] ------- [1:255 -1:255 32 0] 
s 13.788733937 _8_ RTR  --- 39 message 68 [0 0 0 0] ------- [8:255 -1:255 32 0] 
r 13.790422137 _4_ RTR  --- 39 message 68 [0 ffffffff 8 800] ------- [8:255 -1:255 32 0] 
r 13.790422337 _5_ RTR  --- 39 message 68 [0 ffffffff 8 800] ------- [8:255 -1:255 32 0] 
r 13.790422455 _3_ RTR  --- 39 message 68 [0 ffffffff 8 800] ------- [8:255 -1:255 32 0] 
r 13.790422711 _7_ RTR  --- 39 message 68 [0 ffffffff 8 800] ------- [8:255 -1:255 32 0] 
s 13.842906801 _3_ RTR  --- 40 message 32 [0 0 0 0] ------- [3:255 -1:255 32 0] 
r 13.844247155 _7_ RTR  --- 40 message 32 [0 ffffffff 3 800] ------- [3:255 -1:255 32 0] 
r 13.844247305 _4_ RTR  --- 40 message 32 [0 ffffffff 3 800] ------- [3:255 -1:255 32 0] 
r 13.844247318 _8_ RTR  --- 40 message 32 [0 ffffffff 3 800] ------- [3:255 -1:255 32 0] 
r 13.844247467 _1_ RTR  --- 40 message 32 [0 ffffffff 3 800] ------- [3:255 -1:255 32 0] 
s 14.032307755 _7_ RTR  --- 41 message 32 [0 0 0 0] ------- [7:255 -1:255 32 0] 
r 14.033648110 _3_ RTR  --- 41 message 32 [0 ffffffff 7 800] ------- [7:255 -1:255 32 0] 
r 14.033648528 _8_ RTR  --- 41 message 32 [0 ffffffff 7 800] ------- [7:255 -1:255 32 0] 
r 14.033648533 _1_ RTR  --- 41 message 32 [0 ffffffff 7 800] ------- [7:255 -1:255 32 0] 
r 14.033648578 _4_ RTR  --- 41 message 32 [0 ffffffff 7 800] ------- [7:255 -1:255 32 0] 
r 14.033648578 _9_ RTR  --- 41 message 32 [0 ffffffff 7 800] ------- [7:255 -1:255 32 0] 
s 14.289380698 _5_ RTR  --- 42 message 44 [0 0 0 0] ------- [5:255 -1:255 32 0] 
r 14.290297098 _8_ RTR  --- 42 message 44 [0 ffffffff 5 800] ------- [5:255 -1:255 32 0] 
r 14.290297145 _4_ RTR  --- 42 message 44 [0 ffffffff 5 800] ------- [5:255 -1:255 32 0] 
r 14.290297225 _6_ RTR  --- 42 message 44 [0 ffffffff 5 800] ------- [5:255 -1:255 32 0] 
s 14.324411196 _7_ RTR  --- 43 message 44 [0 0 0 0] ------- [7:255 -1:255 32 0] 
r 14.325327551 _3_ RTR  --- 43 message 44 [0 ffffffff 7 800] ------- [7:255 -1:255 32 0] 
r 14.325327970 _8_ RTR  --- 43 message 44 [0 ffffffff 7 800] ------- [7:255 -1:255 32 0] 
r 14.325327975 _1_ RTR  --- 43 message 44 [0 ffffffff 7 800] ------- [7:255 -1:255 32 0] 
r 14.325328020 _4_ RTR  --- 43 message 44 [0 ffffffff 7 800] ------- [7:255 -1:255 32 0] 
r 14.325328020 _9_ RTR  --- 43 message 44 [0 ffffffff 7 800] ------- [7:255 -1:255 32 0] 
s 14.968954405 _6_ RTR  --- 45 message 44 [0 0 0 0] ------- [6:255 -1:255 32 0] 
r 14.970370932 _5_ RTR  --- 45 message 44 [0 ffffffff 6 800] ------- [6:255 -1:255 32 0] 
M 15.00000 2 (300.00, 150.00, 0.00), (280.00, 130.00), 22.00
s 15.278278848 _5_ RTR  --- 46 message 44 [0 0 0 0] ------- [5:255 -1:255 32 0] 
r 15.279735248 _8_ RTR  --- 46 message 44 [0 ffffffff 5 800] ------- [5:255 -1:255 32 0] 
r 15.279735295 _4_ RTR  --- 46 message 44 [0 ffffffff 5 800] ------- [5:255 -1:255 32 0] 
r 15.279735375 _6_ RTR  --- 46 message 44 [0 ffffffff 5 800] ------- [5:255 -1:255 32 0] 
s 15.475832438 _4_ RTR  --- 47 message 32 [0 0 0 0] ------- [4:255 -1:255 32 0] 
r 15.476652638 _8_ RTR  --- 47 message 32 [0 ffffffff 4 800] ------- [4:255 -1:255 32 0] 
r 15.476652886 _5_ RTR  --- 47 message 32 [0 ffffffff 4 800] ------- [4:255 -1:255 32 0] 
r 15.476652943 _3_ RTR  --- 47 message 32 [0 ffffffff 4 800] ------- [4:255 -1:255 32 0] 
r 15.476653262 _7_ RTR  --- 47 message 32 [0 ffffffff 4 800] ------- [4:255 -1:255 32 0] 
s 19.000000000 _4_ AGT  --- 48 tcp 40 [0 0 0 0] ------- [4:0 11:0 32 0] [0 0] 0 0
r 19.000000000 _4_ RTR  --- 48 tcp 40 [0 0 0 0] ------- [4:0 11:0 32 0] [0 0] 0 0
M 20.00000 3 (340.00, 480.00, 0.00), (290.00, 460.00), 21.00
s 23.798393702 _11_ RTR  --- 49 message 44 [0 0 0 0] ------- [11:255 -1:255 32 0] 
r 23.799650316 _9_ RTR  --- 49 message 44 [0 ffffffff b 800] ------- [11:255 -1:255 32 0] 
s 24.040712467 _9_ RTR  --- 52 message 32 [0 0 0 0] ------- [9:255 -1:255 32 0] 
s 24.040735320 _4_ RTR  --- 50 message 44 [0 0 0 0] ------- [4:255 -1:255 32 0] 
r 24.041731520 _8_ RTR  --- 50 message 44 [0 ffffffff 4 800] ------- [4:255 -1:255 32 0] 
r 24.041731767 _5_ RTR  --- 50 message 44 [0 ffffffff 4 800] ------- [4:255 -1:255 32 0] 
r 24.041731895 _3_ RTR  --- 50 message 44 [0 ffffffff 4 800] ------- [4:255 -1:255 32 0] 
r 24.041732143 _7_ RTR  --- 50 message 44 [0 ffffffff 4 800] ------- [4:255 -1:255 32 0] 
s 24.042726471 _8_ RTR  --- 51 message 44 [0 0 0 0] ------- [8:255 -1:255 32 0] 
r 24.043267099 _11_ RTR  --- 52 message 32 [0 ffffffff 9 800] ------- [9:255 -1:255 32 0] 
r 24.043267212 _10_ RTR  --- 52 message 32 [0 ffffffff 9 800] ------- [9:255 -1:255 32 0] 
r 24.043267308 _7_ RTR  --- 52 message 32 [0 ffffffff 9 800] ------- [9:255 -1:255 32 0] 
r 24.044497669 _4_ RTR  --- 51 message 44 [0 ffffffff 8 800] ------- [8:255 -1:255 32 0] 
r 24.044497869 _5_ RTR  --- 51 message 44 [0 ffffffff 8 800] ------- [8:255 -1:255 32 0] 
r 24.044498110 _3_ RTR  --- 51 message 44 [0 ffffffff 8 800] ------- [8:255 -1:255 32 0] 
r 24.044498242 _7_ RTR  --- 51 message 44 [0 ffffffff 8 800] ------- [8:255 -1:255 32 0] 
s 24.155250563 _0_ RTR  --- 53 message 32 [0 0 0 0] ------- [0:255 -1:255 32 0] 
r 24.156370936 _1_ RTR  --- 53 message 32 [0 ffffffff 0 800] ------- [0:255 -1:255 32 0] 
s 24.346609738 _7_ RTR  --- 55 message 92 [0 0 0 0] ------- [7:255 -1:255 32 0] 
r 24.347910185 _3_ RTR  --- 55 message 92 [0 ffffffff 7 800] ------- [7:255 -1:255 32 0] 
r 24.347910511 _8_ RTR  --- 55 message 92 [0 ffffffff 7 800] ------- [7:255 -1:255 32 0] 
r 24.347910516 _1_ RTR  --- 55 message 92 [0 ffffffff 7 800] ------- [7:255 -1:255 32 0] 
r 24.347910561 _4_ RTR  --- 55 message 92 [0 ffffffff 7 800] ------- [7:255 -1:255 32 0] 
s 24.347910561 _4_ RTR  --- 12 tcp 80 [0 0 0 0] ------- [4:0 11:0 32 7] [0 0] 0 0
s 24.347910561 _4_ RTR  --- 29 tcp 80 [0 0 0 0] ------- [4:0 11:0 32 7] [0 0] 0 0
D 24.347910561 _4_ IFQ  ARP 12 tcp 80 [0 0 4 800] ------- [4:0 11:0 32 7] [0 0] 0 0
s 24.347910561 _4_ RTR  --- 48 tcp 80 [0 0 0 0] ------- [4:0 11:0 32 7] [0 0] 0 0
D 24.347910561 _4_ IFQ  ARP 29 tcp 80 [0 0 4 800] ------- [4:0 11:0 32 7] [0 0] 0 0
r 24.347910561 _9_ RTR  --- 55 message 92 [0 ffffffff 7 800] ------- [7:255 -1:255 32 0] 
s 24.350528138 _10_ RTR  --- 54 message 44 [0 0 0 0] ------- [10:255 -1:255 32 0] 
r 24.356794617 _7_ RTR  --- 48 tcp 80 [13a 7 4 800] ------- [4:0 11:0 32 7] [0 0] 1 0
f 24.356794617 _7_ RTR  --- 48 tcp 80 [13a 7 4 800] ------- [4:0 11:0 31 9] [0 0] 1 0
r 24.364206673 _9_ RTR  --- 48 tcp 80 [13a 9 7 800] ------- [4:0 11:0 31 9] [0 0] 2 0
f 24.364206673 _9_ RTR  --- 48 tcp 80 [13a 9 7 800] ------- [4:0 11:0 30 11] [0 0] 2 0
r 24.365457968 _9_ RTR  --- 54 message 44 [0 ffffffff a 800] ------- [10:255 -1:255 32 0] 
r 24.370463271 _11_ AGT  --- 48 tcp 80 [13a b 9 800] ------- [4:0 11:0 30 11] [0 0] 3 0
s 24.370463271 _11_ AGT  --- 56 ack 40 [0 0 0 0] ------- [11:0 4:0 32 0] [0 0] 0 0
r 24.370463271 _11_ RTR  --- 56 ack 40 [0 0 0 0] ------- [11:0 4:0 32 0] [0 0] 0 0
s 24.480165769 _5_ RTR  --- 57 message 44 [0 0 0 0] ------- [5:255 -1:255 32 0] 
r 24.481422169 _8_ RTR  --- 57 message 44 [0 ffffffff 5 800] ------- [5:255 -1:255 32 0] 
r 24.481422216 _4_ RTR  --- 57 message 44 [0 ffffffff 5 800] ------- [5:255 -1:255 32 0] 
r 24.481422296 _6_ RTR  --- 57 message 44 [0 ffffffff 5 800] ------- [5:255 -1:255 32 0] 
s 24.489097708 _2_ RTR  --- 58 message 44 [0 0 0 0] ------- [2:255 -1:255 32 0] 
s 24.801550747 _11_ RTR  --- 59 message 32 [0 0 0 0] ------- [11:255 -1:255 32 0] 
r 24.802371362 _9_ RTR  --- 59 message 32 [0 ffffffff b 800] ------- [11:255 -1:255 32 0] 
M 25.00000 4 (320.00, 630.00, 0.00), (270.00, 610.00), 20.00
s 25.081127621 _1_ RTR  --- 60 message 56 [0 0 0 0] ------- [1:255 -1:255 32 0] 
r 25.082539993 _0_ RTR  --- 60 message 56 [0 ffffffff 1 800] ------- [1:255 -1:255 32 0] 
r 25.082540116 _3_ RTR  --- 60 message 56 [0 ffffffff 1 800] ------- [1:255 -1:255 32 0] 
r 25.082540399 _7_ RTR  --- 60 message 56 [0 ffffffff 1 800] ------- [1:255 -1:255 32 0] 
s 25.154423320 _0_ RTR  --- 61 message 32 [0 0 0 0] ------- [0:255 -1:255 32 0] 
r 25.155763693 _1_ RTR  --- 61 message 32 [0 ffffffff 0 800] ------- [0:255 -1:255 32 0] 
s 25.342661367 _10_ RTR  --- 63 message 44 [0 0 0 0] ------- [10:255 -1:255 32 0] 
r 25.344178095 _9_ RTR  --- 63 message 44 [0 ffffffff a 800] ------- [10:255 -1:255 32 0] 
s 25.485394730 _3_ RTR  --- 64 message 44 [0 0 0 0] ------- [3:255 -1:255 32 0] 
r 25.486831177 _7_ RTR  --- 64 message 44 [0 ffffffff 3 800] ------- [3:255 -1:255 32 0] 
r 25.486831225 _1_ RTR  --- 64 message 44 [0 ffffffff 3 800] ------- [3:255 -1:255 32 0] 
r 25.486831289 _4_ RTR  --- 64 message 44 [0 ffffffff 3 800] ------- [3:255 -1:255 32 0] 
r 25.486831371 _8_ RTR  --- 64 message 44 [0 ffffffff 3 800] ------- [3:255 -1:255 32 0] 
s 25.487263989 _7_ RTR  --- 65 message 32 [0 0 0 0] ------- [7:255 -1:255 32 0] 
r 25.488504436 _3_ RTR  --- 65 message 32 [0 ffffffff 7 800] ------- [7:255 -1:255 32 0] 
r 25.488504762 _8_ RTR  --- 65 message 32 [0 ffffffff 7 800] ------- [7:255 -1:255 32 0] 
r 25.488504767 _1_ RTR  --- 65 message 32 [0 ffffffff 7 800] ------- [7:255 -1:255 32 0] 
r 25.488504812 _9_ RTR  --- 65 message 32 [0 ffffffff 7 800] ------- [7:255 -1:255 32 0] 
r 25.488504813 _4_ RTR  --- 65 message 32 [0 ffffffff 7 800] ------- [7:255 -1:255 32 0] 
s 25.757534601 _10_ RTR  --- 66 message 68 [0 0 0 0] ------- [10:255 -1:255 32 0] 
r 25.758863329 _9_ RTR  --- 66 message 68 [0 ffffffff a 800] ------- [10:255 -1:255 32 0] 
s 26.037927493 _9_ RTR  --- 67 message 32 [0 0 0 0] ------- [9:255 -1:255 32 0] 
r 26.039228107 _11_ RTR  --- 67 message 32 [0 ffffffff 9 800] ------- [9:255 -1:255 32 0] 
s 26.039228107 _11_ RTR  --- 56 ack 80 [0 0 0 0] ------- [11:0 4:0 32 9] [0 0] 0 0
r 26.039228221 _10_ RTR  --- 67 message 32 [0 ffffffff 9 800] ------- [9:255 -1:255 32 0] 
r 26.039228316 _7_ RTR  --- 67 message 32 [0 ffffffff 9 800] ------- [9:255 -1:255 32 0] 
r 26.041309951 _9_ RTR  --- 56 ack 80 [13a 9 b 800] ------- [11:0 4:0 32 9] [0 0] 1 0
f 26.041309951 _9_ RTR  --- 56 ack 80 [13a 9 b 800] ------- [11:0 4:0 31 7] [0 0] 1 0
s 26.043203017 _3_ RTR  --- 68 message 68 [0 0 0 0] ------- [3:255 -1:255 32 0] 
r 26.043736421 _7_ RTR  --- 56 ack 80 [13a 7 9 800] ------- [11:0 4:0 31 7] [0 0] 2 0
f 26.043736421 _7_ RTR  --- 56 ack 80 [13a 7 9 800] ------- [11:0 4:0 30 4] [0 0] 2 0
r 26.045579216 _7_ RTR  --- 68 message 68 [0 ffffffff 3 800] ------- [3:255 -1:255 32 0] 
r 26.045579264 _1_ RTR  --- 68 message 68 [0 ffffffff 3 800] ------- [3:255 -1:255 32 0] 
r 26.045579311 _4_ RTR  --- 68 message 68 [0 ffffffff 3 800] ------- [3:255 -1:255 32 0] 
r 26.045579410 _8_ RTR  --- 68 message 68 [0 ffffffff 3 800] ------- [3:255 -1:255 32 0] 
r 26.047511693 _4_ AGT  --- 56 ack 80 [13a 4 7 800] ------- [11:0 4:0 30 4] [0 0] 3 0
s 26.047511693 _4_ AGT  --- 69 tcp 1040 [0 0 0 0] ------- [4:0 11:0 32 0] [1 0] 0 0
r 26.047511693 _4_ RTR  --- 69 tcp 1040 [0 0 0 0] ------- [4:0 11:0 32 0] [1 0] 0 0
s 26.047511693 _4_ RTR  --- 69 tcp 1060 [0 0 0 0] ------- [4:0 11:0 32 7] [1 0] 0 0
r 26.057958170 _7_ RTR  --- 69 tcp 1060 [13a 7 4 800] ------- [4:0 11:0 32 7] [1 0] 1 0
f 26.057958170 _7_ RTR  --- 69 tcp 1060 [13a 7 4 800] ------- [4:0 11:0 31 9] [1 0] 1 0
r 26.068484640 _9_ RTR  --- 69 tcp 1060 [13a 9 7 800] ------- [4:0 11:0 31 9] [1 0] 2 0
f 26.068484640 _9_ RTR  --- 69 tcp 1060 [13a 9 7 800] ------- [4:0 11:0 30 11] [1 0] 2 0
r 26.079030484 _11_ AGT  --- 69 tcp 1060 [13a b 9 800] ------- [4:0 11:0 30 11] [1 0] 3 0
s 26.079030484 _11_ AGT  --- 71 ack 40 [0 0 0 0] ------- [11:0 4:0 32 0] [1 0] 0 0
r 26.079030484 _11_ RTR  --- 71 ack 40 [0 0 0 0] ------- [11:0 4:0 32 0] [1 0] 0 0
s 26.079030484 _11_ RTR  --- 71 ack 60 [0 0 0 0] ------- [11:0 4:0 32 9] [1 0] 0 0
r 26.081236328 _9_ RTR  --- 71 ack 60 [13a 9 b 800] ------- [11:0 4:0 32 9] [1 0] 1 0
f 26.081236328 _9_ RTR  --- 71 ack 60 [13a 9 b 800] ------- [11:0 4:0 31 7] [1 0] 1 0
r 26.083622798 _7_ RTR  --- 71 ack 60 [13a 7 9 800] ------- [11:0 4:0 31 7] [1 0] 2 0
f 26.083622798 _7_ RTR  --- 71 ack 60 [13a 7 9 800] ------- [11:0 4:0 30 4] [1 0] 2 0
r 26.085609275 _4_ AGT  --- 71 ack 60 [13a 4 7 800] ------- [11:0 4:0 30 4] [1 0] 3 0
s 26.085609275 _4_ AGT  --- 72 tcp 1040 [0 0 0 0] ------- [4:0 11:0 32 0] [2 0] 0 0
r 26.085609275 _4_ RTR  --- 72 tcp 1040 [0 0 0 0] ------- [4:0 11:0 32 0] [2 0] 0 0
s 26.085609275 _4_ RTR  --- 72 tcp 1060 [0 0 0 0] ------- [4:0 11:0 32 7] [2 0] 0 0
s 26.085609275 _4_ AGT  --- 73 tcp 1040 [0 0 0 0] ------- [4:0 11:0 32 0] [3 0] 0 0
r 26.085609275 _4_ RTR  --- 73 tcp 1040 [0 0 0 0] ------- [4:0 11:0 32 0] [3 0] 0 0
s 26.085609275 _4_ RTR  --- 73 tcp 1060 [0 0 0 0] ------- [4:0 11:0 32 7] [3 0] 0 0
r 26.095775753 _7_ RTR  --- 72 tcp 1060 [13a 7 4 800] ------- [4:0 11:0 32 7] [2 0] 1 0
f 26.095775753 _7_ RTR  --- 72 tcp 1060 [13a 7 4 800] ------- [4:0 11:0 31 9] [2 0] 1 0
r 26.105782223 _9_ RTR  --- 72 tcp 1060 [13a 9 7 800] ------- [4:0 11:0 31 9] [2 0] 2 0
f 26.105782223 _9_ RTR  --- 72 tcp 1060 [13a 9 7 800] ------- [4:0 11:0 30 11] [2 0] 2 0
r 26.116248067 _11_ AGT  --- 72 tcp 1060 [13a b 9 800] ------- [4:0 11:0 30 11] [2 0] 3 0
s 26.116248067 _11_ AGT  --- 74 ack 40 [0 0 0 0] ------- [11:0 4:0 32 0] [2 0] 0 0
r 26.116248067 _11_ RTR  --- 74 ack 40 [0 0 0 0] ------- [11:0 4:0 32 0] [2 0] 0 0
s 26.116248067 _11_ RTR  --- 74 ack 60 [0 0 0 0] ------- [11:0 4:0 32 9] [2 0] 0 0
r 26.118573911 _9_ RTR  --- 74 ack 60 [13a 9 b 800] ------- [11:0 4:0 32 9] [2 0] 1 0
f 26.118573911 _9_ RTR  --- 74 ack 60 [13a 9 b 800] ------- [11:0 4:0 31 7] [2 0] 1 0
r 26.120840381 _7_ RTR  --- 74 ack 60 [13a 7 9 800] ------- [11:0 4:0 31 7] [2 0] 2 0
f 26.120840381 _7_ RTR  --- 74 ack 60 [13a 7 9 800] ------- [11:0 4:0 30 4] [2 0] 2 0
r 26.130897253 _7_ RTR  --- 73 tcp 1060 [13a 7 4 800] ------- [4:0 11:0 32 7] [3 0] 1 0
f 26.130897253 _7_ RTR  --- 73 tcp 1060 [13a 7 4 800] ------- [4:0 11:0 31 9] [3 0] 1 0
r 26.132903732 _4_ AGT  --- 74 ack 60 [13a 4 7 800] ------- [11:0 4:0 30 4] [2 0] 3 0
s 26.132903732 _4_ AGT  --- 75 tcp 1040 [0 0 0 0] ------- [4:0 11:0 32 0] [4 0] 0 0
r 26.132903732 _4_ RTR  --- 75 tcp 1040 [0 0 0 0] ------- [4:0 11:0 32 0] [4 0] 0 0
s 26.132903732 _4_ RTR  --- 75 tcp 1060 [0 0 0 0] ------- [4:0 11:0 32 7] [4 0] 0 0
r 26.143090210 _7_ RTR  --- 75 tcp 1060 [13a 7 4 800] ------- [4:0 11:0 32 7] [4 0] 1 0
f 26.143090210 _7_ RTR  --- 75 tcp 1060 [13a 7 4 800] ------- [4:0 11:0 31 9] [4 0] 1 0
r 26.153436680 _9_ RTR  --- 73 tcp 1060 [13a 9 7 800] ------- [4:0 11:0 31 9] [3 0] 2 0
f 26.153436680 _9_ RTR  --- 73 tcp 1060 [13a 9 7 800] ------- [4:0 11:0 30 11] [3 0] 2 0
r 26.163723973 _9_ RTR  --- 75 tcp 1060 [13a 9 7 800] ------- [4:0 11:0 31 9] [4 0] 2 0
f 26.163723973 _9_ RTR  --- 75 tcp 1060 [13a 9 7 800] ------- [4:0 11:0 30 11] [4 0] 2 0
r 26.173789817 _11_ AGT  --- 73 tcp 1060 [13a b 9 800] ------- [4:0 11:0 30 11] [3 0] 3 0
s 26.173789817 _11_ AGT  --- 76 ack 40 [0 0 0 0] ------- [11:0 4:0 32 0] [3 0] 0 0
r 26.173789817 _11_ RTR  --- 76 ack 40 [0 0 0 0] ------- [11:0 4:0 32 0] [3 0] 0 0
s 26.173789817 _11_ RTR  --- 76 ack 60 [0 0 0 0] ------- [11:0 4:0 32 9] [3 0] 0 0
r 26.184036276 _11_ AGT  --- 75 tcp 1060 [13a b 9 800] ------- [4:0 11:0 30 11] [4 0] 3 0
s 26.184036276 _11_ AGT  --- 77 ack 40 [0 0 0 0] ------- [11:0 4:0 32 0] [4 0] 0 0
r 26.184036276 _11_ RTR  --- 77 ack 40 [0 0 0 0] ------- [11:0 4:0 32 0] [4 0] 0 0
s 26.184036276 _11_ RTR  --- 77 ack 60 [0 0 0 0] ------- [11:0 4:0 32 9] [4 0] 0 0
r 26.186142120 _9_ RTR  --- 76 ack 60 [13a 9 b 800] ------- [11:0 4:0 32 9] [3 0] 1 0
f 26.186142120 _9_ RTR  --- 76 ack 60 [13a 9 b 800] ------- [11:0 4:0 31 7] [3 0] 1 0
r 26.188328578 _9_ RTR  --- 77 ack 60 [13a 9 b 800] ------- [11:0 4:0 32 9] [4 0] 1 0
f 26.188328578 _9_ RTR  --- 77 ack 60 [13a 9 b 800] ------- [11:0 4:0 31 7] [4 0] 1 0
r 26.190555048 _7_ RTR  --- 76 ack 60 [13a 7 9 800] ------- [11:0 4:0 31 7] [3 0] 2 0
f 26.190555048 _7_ RTR  --- 76 ack 60 [13a 7 9 800] ------- [11:0 4:0 30 4] [3 0] 2 0
r 26.192581527 _4_ AGT  --- 76 ack 60 [13a 4 7 800] ------- [11:0 4:0 30 4] [3 0] 3 0
s 26.192581527 _4_ AGT  --- 78 tcp 1040 [0 0 0 0] ------- [4:0 11:0 32 0] [5 0] 0 0
r 26.192581527 _4_ RTR  --- 78 tcp 1040 [0 0 0 0] ------- [4:0 11:0 32 0] [5 0] 0 0
s 26.192581527 _4_ RTR  --- 78 tcp 1060 [0 0 0 0] ------- [4:0 11:0 32 7] [5 0] 0 0
r 26.202628007 _7_ RTR  --- 78 tcp 1060 [13a 7 4 800] ------- [4:0 11:0 32 7] [5 0] 1 0
f 26.202628007 _7_ RTR  --- 78 tcp 1060 [13a 7 4 800] ------- [4:0 11:0 31 9] [5 0] 1 0
r 26.212834477 _9_ RTR  --- 78 tcp 1060 [13a 9 7 800] ------- [4:0 11:0 31 9] [5 0] 2 0
f 26.212834477 _9_ RTR  --- 78 tcp 1060 [13a 9 7 800] ------- [4:0 11:0 30 11] [5 0] 2 0
r 26.214980947 _7_ RTR  --- 77 ack 60 [13a 7 9 800] ------- [11:0 4:0 31 7] [4 0] 2 0
f 26.214980947 _7_ RTR  --- 77 ack 60 [13a 7 9 800] ------- [11:0 4:0 30 4] [4 0] 2 0
r 26.217347427 _4_ AGT  --- 77 ack 60 [13a 4 7 800] ------- [11:0 4:0 30 4] [4 0] 3 0
s 26.217347427 _4_ AGT  --- 79 tcp 1040 [0 0 0 0] ------- [4:0 11:0 32 0] [6 0] 0 0
r 26.217347427 _4_ RTR  --- 79 tcp 1040 [0 0 0 0] ------- [4:0 11:0 32 0] [6 0] 0 0
s 26.217347427 _4_ RTR  --- 79 tcp 1060 [0 0 0 0] ------- [4:0 11:0 32 7] [6 0] 0 0
s 26.217347427 _4_ AGT  --- 80 tcp 1040 [0 0 0 0] ------- [4:0 11:0 32 0] [7 0] 0 0
r 26.217347427 _4_ RTR  --- 80 tcp 1040 [0 0 0 0] ------- [4:0 11:0 32 0] [7 0] 0 0
s 26.217347427 _4_ RTR  --- 80 tcp 1060 [0 0 0 0] ------- [4:0 11:0 32 7] [7 0] 0 0
r 26.227838493 _11_ AGT  --- 78 tcp 1060 [13a b 9 800] ------- [4:0 11:0 30 11] [5 0] 3 0
s 26.227838493 _11_ AGT  --- 81 ack 40 [0 0 0 0] ------- [11:0 4:0 32 0] [5 0] 0 0
r 26.227838493 _11_ RTR  --- 81 ack 40 [0 0 0 0] ------- [11:0 4:0 32 0] [5 0] 0 0
s 26.227838493 _11_ RTR  --- 81 ack 60 [0 0 0 0] ------- [11:0 4:0 32 9] [5 0] 0 0
r 26.229884337 _9_ RTR  --- 81 ack 60 [13a 9 b 800] ------- [11:0 4:0 32 9] [5 0] 1 0
f 26.229884337 _9_ RTR  --- 81 ack 60 [13a 9 b 800] ------- [11:0 4:0 31 7] [5 0] 1 0
r 26.231930807 _7_ RTR  --- 81 ack 60 [13a 7 9 800] ------- [11:0 4:0 31 7] [5 0] 2 0
f 26.231930807 _7_ RTR  --- 81 ack 60 [13a 7 9 800] ------- [11:0 4:0 30 4] [5 0] 2 0
r 26.234397287 _4_ AGT  --- 81 ack 60 [13a 4 7 800] ------- [11:0 4:0 30 4] [5 0] 3 0
s 26.234397287 _4_ AGT  --- 82 tcp 1040 [0 0 0 0] ------- [4:0 11:0 32 0] [8 0] 0 0
r 26.234397287 _4_ RTR  --- 82 tcp 1040 [0 0 0 0] ------- [4:0 11:0 32 0] [8 0] 0 0
s 26.234397287 _4_ RTR  --- 82 tcp 1060 [0 0 0 0] ------- [4:0 11:0 32 7] [8 0] 0 0